# vtk DataFile Version 3.0
Generated by mfem-seismo
ASCII
DATASET UNSTRUCTURED_GRID
POINTS 343 double
0 0 0 
0 0 15 
0 0 30 
0 0 45 
0 0 60 
0 0 75 
0 0 90 
0 15 0 
0 15 15 
0 15 30 
0 15 45 
0 15 60 
0 15 75 
0 15 90 
0 30 0 
0 30 15 
0 30 30 
0 30 45 
0 30 60 
0 30 75 
0 30 90 
0 45 0 
0 45 15 
0 45 30 
0 45 45 
0 45 60 
0 45 75 
0 45 90 
0 60 0 
0 60 15 
0 60 30 
0 60 45 
0 60 60 
0 60 75 
0 60 90 
0 75 0 
0 75 15 
0 75 30 
0 75 45 
0 75 60 
0 75 75 
0 75 90 
0 90 0 
0 90 15 
0 90 30 
0 90 45 
0 90 60 
0 90 75 
0 90 90 
15 0 15.0 
15 0 15 
15 0 30 
15 0 45 
15 0 60 
15 0 75 
15 0 90 
15 15 0 
15 15 15 
15 15 30 
15 15 45 
15 15 60 
15 15 75 
15 15 90 
15 30 0 
15 30 15 
15 30 30 
15 30 45 
15 30 60 
15 30 75 
15 30 90 
15 45 0 
15 45 15 
15 45 30 
15 45 45 
15 45 60 
15 45 75 
15 45 90 
15 60 0 
15 60 15 
15 60 30 
15 60 45 
15 60 60 
15 60 75 
15 60 90 
15 75 0 
15 75 15 
15 75 30 
15 75 45 
15 75 60 
15 75 75 
15 75 90 
15 90 0 
15 90 15 
15 90 30 
15 90 45 
15 90 60 
15 90 75 
15 90 90 
30 0 0 
30 0 15 
30 0 30 
30 0 45 
30 0 60 
30 0 75 
30 0 90 
30 15 0 
30 15 15 
30 15 30 
30 15 45 
30 15 60 
30 15 75 
30 15 90 
30 30 0 
30 30 15 
30 30 30 
30 30 45 
30 30 60 
30 30 75 
30 30 90 
30 45 0 
30 45 15 
30 45 30 
30 45 45 
30 45 60 
30 45 75 
30 45 90 
30 60 0 
30 60 15 
30 60 30 
30 60 45 
30 60 60 
30 60 75 
30 60 90 
30 75 0 
30 75 15 
30 75 30 
30 75 45 
30 75 60 
30 75 75 
30 75 90 
30 90 0 
30 90 15 
30 90 30 
30 90 45 
30 90 60 
30 90 75 
30 90 90 
45 0 0 
45 0 15 
45 0 30 
45 0 45 
45 0 60 
45 0 75 
45 0 90 
45 15 0 
45 15 15 
45 15 30 
45 15 45 
45 15 60 
45 15 75 
45 15 90 
45 30 0 
45 30 15 
45 30 30 
45 30 45 
45 30 60 
45 30 75 
45 30 90 
45 45 0 
45 45 15 
45 45 30 
45 45 45 
45 45 60 
45 45 75 
45 45 90 
45 60 0 
45 60 15 
45 60 30 
45 60 45 
45 60 60 
45 60 75 
45 60 90 
45 75 0 
45 75 15 
45 75 30 
45 75 45 
45 75 60 
45 75 75 
45 75 90 
45 90 0 
45 90 15 
45 90 30 
45 90 45 
45 90 60 
45 90 75 
45 90 90 
60 0 0 
60 0 15 
60 0 30 
60 0 45 
60 0 60 
60 0 75 
60 0 90 
60 15 0 
60 15 15 
60 15 30 
60 15 45 
60 15 60 
60 15 75 
60 15 90 
60 30 0 
60 30 15 
60 30 30 
60 30 45 
60 30 60 
60 30 75 
60 30 90 
60 45 0 
60 45 15 
60 45 30 
60 45 45 
60 45 60 
60 45 75 
60 45 90 
60 60 0 
60 60 15 
60 60 30 
60 60 45 
60 60 60 
60 60 75 
60 60 90 
60 75 0 
60 75 15 
60 75 30 
60 75 45 
60 75 60 
60 75 75 
60 75 90 
60 90 0 
60 90 15 
60 90 30 
60 90 45 
60 90 60 
60 90 75 
60 90 90 
75 0 0 
75 0 15 
75 0 30 
75 0 45 
75 0 60 
75 0 75 
75 0 90 
75 15 0 
75 15 15 
75 15 30 
75 15 45 
75 15 60 
75 15 75 
75 15 90 
75 30 0 
75 30 15 
75 30 30 
75 30 45 
75 30 60 
75 30 75 
75 30 90 
75 45 0 
75 45 15 
75 45 30 
75 45 45 
75 45 60 
75 45 75 
75 45 90 
75 60 0 
75 60 15 
75 60 30 
75 60 45 
75 60 60 
75 60 75 
75 60 90 
75 75 0 
75 75 15 
75 75 30 
75 75 45 
75 75 60 
75 75 75 
75 75 90 
75 90 0 
75 90 15 
75 90 30 
75 90 45 
75 90 60 
75 90 75 
75 90 90 
90 0 0 
90 0 15 
90 0 30 
90 0 45 
90 0 60 
90 0 75 
90 0 90 
90 15 0 
90 15 15 
90 15 30 
90 15 45 
90 15 60 
90 15 75 
90 15 90 
90 30 0 
90 30 15 
90 30 30 
90 30 45 
90 30 60 
90 30 75 
90 30 90 
90 45 0 
90 45 15 
90 45 30 
90 45 45 
90 45 60 
90 45 75 
90 45 90 
90 60 0 
90 60 15 
90 60 30 
90 60 45 
90 60 60 
90 60 75 
90 60 90 
90 75 0 
90 75 15 
90 75 30 
90 75 45 
90 75 60 
90 75 75 
90 75 90 
90 90 0 
90 90 15 
90 90 30 
90 90 45 
90 90 60 
90 90 75 
90 90 90 
CELLS 216 1944 
8 0 1 7 8 49 50 56 57 
8 1 2 8 9 50 51 57 58 
8 2 3 9 10 51 52 58 59 
8 3 4 10 11 52 53 59 60 
8 4 5 11 12 53 54 60 61 
8 5 6 12 13 54 55 61 62 
8 7 8 14 15 56 57 63 64 
8 8 9 15 16 57 58 64 65 
8 9 10 16 17 58 59 65 66 
8 10 11 17 18 59 60 66 67 
8 11 12 18 19 60 61 67 68 
8 12 13 19 20 61 62 68 69 
8 14 15 21 22 63 64 70 71 
8 15 16 22 23 64 65 71 72 
8 16 17 23 24 65 66 72 73 
8 17 18 24 25 66 67 73 74 
8 18 19 25 26 67 68 74 75 
8 19 20 26 27 68 69 75 76 
8 21 22 28 29 70 71 77 78 
8 22 23 29 30 71 72 78 79 
8 23 24 30 31 72 73 79 80 
8 24 25 31 32 73 74 80 81 
8 25 26 32 33 74 75 81 82 
8 26 27 33 34 75 76 82 83 
8 28 29 35 36 77 78 84 85 
8 29 30 36 37 78 79 85 86 
8 30 31 37 38 79 80 86 87 
8 31 32 38 39 80 81 87 88 
8 32 33 39 40 81 82 88 89 
8 33 34 40 41 82 83 89 90 
8 35 36 42 43 84 85 91 92 
8 36 37 43 44 85 86 92 93 
8 37 38 44 45 86 87 93 94 
8 38 39 45 46 87 88 94 95 
8 39 40 46 47 88 89 95 96 
8 40 41 47 48 89 90 96 97 
8 49 50 56 57 98 99 105 106 
8 50 51 57 58 99 100 106 107 
8 51 52 58 59 100 101 107 108 
8 52 53 59 60 101 102 108 109 
8 53 54 60 61 102 103 109 110 
8 54 55 61 62 103 104 110 111 
8 56 57 63 64 105 106 112 113 
8 57 58 64 65 106 107 113 114 
8 58 59 65 66 107 108 114 115 
8 59 60 66 67 108 109 115 116 
8 60 61 67 68 109 110 116 117 
8 61 62 68 69 110 111 117 118 
8 63 64 70 71 112 113 119 120 
8 64 65 71 72 113 114 120 121 
8 65 66 72 73 114 115 121 122 
8 66 67 73 74 115 116 122 123 
8 67 68 74 75 116 117 123 124 
8 68 69 75 76 117 118 124 125 
8 70 71 77 78 119 120 126 127 
8 71 72 78 79 120 121 127 128 
8 72 73 79 80 121 122 128 129 
8 73 74 80 81 122 123 129 130 
8 74 75 81 82 123 124 130 131 
8 75 76 82 83 124 125 131 132 
8 77 78 84 85 126 127 133 134 
8 78 79 85 86 127 128 134 135 
8 79 80 86 87 128 129 135 136 
8 80 81 87 88 129 130 136 137 
8 81 82 88 89 130 131 137 138 
8 82 83 89 90 131 132 138 139 
8 84 85 91 92 133 134 140 141 
8 85 86 92 93 134 135 141 142 
8 86 87 93 94 135 136 142 143 
8 87 88 94 95 136 137 143 144 
8 88 89 95 96 137 138 144 145 
8 89 90 96 97 138 139 145 146 
8 98 99 105 106 147 148 154 155 
8 99 100 106 107 148 149 155 156 
8 100 101 107 108 149 150 156 157 
8 101 102 108 109 150 151 157 158 
8 102 103 109 110 151 152 158 159 
8 103 104 110 111 152 153 159 160 
8 105 106 112 113 154 155 161 162 
8 106 107 113 114 155 156 162 163 
8 107 108 114 115 156 157 163 164 
8 108 109 115 116 157 158 164 165 
8 109 110 116 117 158 159 165 166 
8 110 111 117 118 159 160 166 167 
8 112 113 119 120 161 162 168 169 
8 113 114 120 121 162 163 169 170 
8 114 115 121 122 163 164 170 171 
8 115 116 122 123 164 165 171 172 
8 116 117 123 124 165 166 172 173 
8 117 118 124 125 166 167 173 174 
8 119 120 126 127 168 169 175 176 
8 120 121 127 128 169 170 176 177 
8 121 122 128 129 170 171 177 178 
8 122 123 129 130 171 172 178 179 
8 123 124 130 131 172 173 179 180 
8 124 125 131 132 173 174 180 181 
8 126 127 133 134 175 176 182 183 
8 127 128 134 135 176 177 183 184 
8 128 129 135 136 177 178 184 185 
8 129 130 136 137 178 179 185 186 
8 130 131 137 138 179 180 186 187 
8 131 132 138 139 180 181 187 188 
8 133 134 140 141 182 183 189 190 
8 134 135 141 142 183 184 190 191 
8 135 136 142 143 184 185 191 192 
8 136 137 143 144 185 186 192 193 
8 137 138 144 145 186 187 193 194 
8 138 139 145 146 187 188 194 195 
8 147 148 154 155 196 197 203 204 
8 148 149 155 156 197 198 204 205 
8 149 150 156 157 198 199 205 206 
8 150 151 157 158 199 200 206 207 
8 151 152 158 159 200 201 207 208 
8 152 153 159 160 201 202 208 209 
8 154 155 161 162 203 204 210 211 
8 155 156 162 163 204 205 211 212 
8 156 157 163 164 205 206 212 213 
8 157 158 164 165 206 207 213 214 
8 158 159 165 166 207 208 214 215 
8 159 160 166 167 208 209 215 216 
8 161 162 168 169 210 211 217 218 
8 162 163 169 170 211 212 218 219 
8 163 164 170 171 212 213 219 220 
8 164 165 171 172 213 214 220 221 
8 165 166 172 173 214 215 221 222 
8 166 167 173 174 215 216 222 223 
8 168 169 175 176 217 218 224 225 
8 169 170 176 177 218 219 225 226 
8 170 171 177 178 219 220 226 227 
8 171 172 178 179 220 221 227 228 
8 172 173 179 180 221 222 228 229 
8 173 174 180 181 222 223 229 230 
8 175 176 182 183 224 225 231 232 
8 176 177 183 184 225 226 232 233 
8 177 178 184 185 226 227 233 234 
8 178 179 185 186 227 228 234 235 
8 179 180 186 187 228 229 235 236 
8 180 181 187 188 229 230 236 237 
8 182 183 189 190 231 232 238 239 
8 183 184 190 191 232 233 239 240 
8 184 185 191 192 233 234 240 241 
8 185 186 192 193 234 235 241 242 
8 186 187 193 194 235 236 242 243 
8 187 188 194 195 236 237 243 244 
8 196 197 203 204 245 246 252 253 
8 197 198 204 205 246 247 253 254 
8 198 199 205 206 247 248 254 255 
8 199 200 206 207 248 249 255 256 
8 200 201 207 208 249 250 256 257 
8 201 202 208 209 250 251 257 258 
8 203 204 210 211 252 253 259 260 
8 204 205 211 212 253 254 260 261 
8 205 206 212 213 254 255 261 262 
8 206 207 213 214 255 256 262 263 
8 207 208 214 215 256 257 263 264 
8 208 209 215 216 257 258 264 265 
8 210 211 217 218 259 260 266 267 
8 211 212 218 219 260 261 267 268 
8 212 213 219 220 261 262 268 269 
8 213 214 220 221 262 263 269 270 
8 214 215 221 222 263 264 270 271 
8 215 216 222 223 264 265 271 272 
8 217 218 224 225 266 267 273 274 
8 218 219 225 226 267 268 274 275 
8 219 220 226 227 268 269 275 276 
8 220 221 227 228 269 270 276 277 
8 221 222 228 229 270 271 277 278 
8 222 223 229 230 271 272 278 279 
8 224 225 231 232 273 274 280 281 
8 225 226 232 233 274 275 281 282 
8 226 227 233 234 275 276 282 283 
8 227 228 234 235 276 277 283 284 
8 228 229 235 236 277 278 284 285 
8 229 230 236 237 278 279 285 286 
8 231 232 238 239 280 281 287 288 
8 232 233 239 240 281 282 288 289 
8 233 234 240 241 282 283 289 290 
8 234 235 241 242 283 284 290 291 
8 235 236 242 243 284 285 291 292 
8 236 237 243 244 285 286 292 293 
8 245 246 252 253 294 295 301 302 
8 246 247 253 254 295 296 302 303 
8 247 248 254 255 296 297 303 304 
8 248 249 255 256 297 298 304 305 
8 249 250 256 257 298 299 305 306 
8 250 251 257 258 299 300 306 307 
8 252 253 259 260 301 302 308 309 
8 253 254 260 261 302 303 309 310 
8 254 255 261 262 303 304 310 311 
8 255 256 262 263 304 305 311 312 
8 256 257 263 264 305 306 312 313 
8 257 258 264 265 306 307 313 314 
8 259 260 266 267 308 309 315 316 
8 260 261 267 268 309 310 316 317 
8 261 262 268 269 310 311 317 318 
8 262 263 269 270 311 312 318 319 
8 263 264 270 271 312 313 319 320 
8 264 265 271 272 313 314 320 321 
8 266 267 273 274 315 316 322 323 
8 267 268 274 275 316 317 323 324 
8 268 269 275 276 317 318 324 325 
8 269 270 276 277 318 319 325 326 
8 270 271 277 278 319 320 326 327 
8 271 272 278 279 320 321 327 328 
8 273 274 280 281 322 323 329 330 
8 274 275 281 282 323 324 330 331 
8 275 276 282 283 324 325 331 332 
8 276 277 283 284 325 326 332 333 
8 277 278 284 285 326 327 333 334 
8 278 279 285 286 327 328 334 335 
8 280 281 287 288 329 330 336 337 
8 281 282 288 289 330 331 337 338 
8 282 283 289 290 331 332 338 339 
8 283 284 290 291 332 333 339 340 
8 284 285 291 292 333 334 340 341 
8 285 286 292 293 334 335 341 342 
CELL_TYPES 216 
12
12
12
12
12
12
12
12
12
12
12
12
12
12
12
12
12
12
12
12
12
12
12
12
12
12
12
12
12
12
12
12
12
12
12
12
12
12
12
12
12
12
12
12
12
12
12
12
12
12
12
12
12
12
12
12
12
12
12
12
12
12
12
12
12
12
12
12
12
12
12
12
12
12
12
12
12
12
12
12
12
12
12
12
12
12
12
12
12
12
12
12
12
12
12
12
12
12
12
12
12
12
12
12
12
12
12
12
12
12
12
12
12
12
12
12
12
12
12
12
12
12
12
12
12
12
12
12
12
12
12
12
12
12
12
12
12
12
12
12
12
12
12
12
12
12
12
12
12
12
12
12
12
12
12
12
12
12
12
12
12
12
12
12
12
12
12
12
12
12
12
12
12
12
12
12
12
12
12
12
12
12
12
12
12
12
12
12
12
12
12
12
12
12
12
12
12
12
12
12
12
12
12
12
12
12
12
12
12
12
12
12
12
12
12
12
CELL_DATA 216 
SCALARS material int
LOOKUP_TABLE default
1
1
1
1
1
1
1
1
1
1
1
1
1
1
1
1
1
1
1
1
1
1
1
1
1
1
1
1
1
1
1
1
1
1
1
1
1
1
1
1
1
1
1
1
1
1
1
1
1
1
1
1
1
1
1
1
1
1
1
1
1
1
1
1
1
1
1
1
1
1
1
1
1
1
1
1
1
1
1
1
1
1
1
1
1
1
1
1
1
1
1
1
1
1
1
1
1
1
1
1
1
1
1
1
1
1
1
1
1
1
1
1
1
1
1
1
1
1
1
1
1
1
1
1
1
1
1
1
1
1
1
1
1
1
1
1
1
1
1
1
1
1
1
1
1
1
1
1
1
1
1
1
1
1
1
1
1
1
1
1
1
1
1
1
1
1
1
1
1
1
1
1
1
1
1
1
1
1
1
1
1
1
1
1
1
1
1
1
1
1
1
1
1
1
1
1
1
1
1
1
1
1
1
1
1
1
1
1
1
1
1
1
1
1
1
1
