# vtk DataFile Version 3.0
Generated by mfem-seismo
ASCII
DATASET UNSTRUCTURED_GRID
POINTS 216 double
0 0 0 
0 0 1 
0 0 2 
0 0 3 
0 0 4 
0 0 5 
0 1 0 
0 1 1 
0 1 2 
0 1 3 
0 1 4 
0 1 5 
0 2 0 
0 2 1 
0 2 2 
0 2 3 
0 2 4 
0 2 5 
0 3 0 
0 3 1 
0 3 2 
0 3 3 
0 3 4 
0 3 5 
0 4 0 
0 4 1 
0 4 2 
0 4 3 
0 4 4 
0 4 5 
0 5 0 
0 5 1 
0 5 2 
0 5 3 
0 5 4 
0 5 5 
1 0 0 
1 0 1 
1 0 2 
1 0 3 
1 0 4 
1 0 5 
1 1 0 
1 1 1 
1 1 2 
1 1 3 
1 1 4 
1 1 5 
1 2 0 
1 2 1 
1 2 2 
1 2 3 
1 2 4 
1 2 5 
1 3 0 
1 3 1 
1 3 2 
1 3 3 
1 3 4 
1 3 5 
1 4 0 
1 4 1 
1 4 2 
1 4 3 
1 4 4 
1 4 5 
1 5 0 
1 5 1 
1 5 2 
1 5 3 
1 5 4 
1 5 5 
2 0 0 
2 0 1 
2 0 2 
2 0 3 
2 0 4 
2 0 5 
2 1 0 
2 1 1 
2 1 2 
2 1 3 
2 1 4 
2 1 5 
2 2 0 
2 2 1 
2 2 2 
2 2 3 
2 2 4 
2 2 5 
2 3 0 
2 3 1 
2 3 2 
2 3 3 
2 3 4 
2 3 5 
2 4 0 
2 4 1 
2 4 2 
2 4 3 
2 4 4 
2 4 5 
2 5 0 
2 5 1 
2 5 2 
2 5 3 
2 5 4 
2 5 5 
3 0 0 
3 0 1 
3 0 2 
3 0 3 
3 0 4 
3 0 5 
3 1 0 
3 1 1 
3 1 2 
3 1 3 
3 1 4 
3 1 5 
3 2 0 
3 2 1 
3 2 2 
3 2 3 
3 2 4 
3 2 5 
3 3 0 
3 3 1 
3 3 2 
3 3 3 
3 3 4 
3 3 5 
3 4 0 
3 4 1 
3 4 2 
3 4 3 
3 4 4 
3 4 5 
3 5 0 
3 5 1 
3 5 2 
3 5 3 
3 5 4 
3 5 5 
4 0 0 
4 0 1 
4 0 2 
4 0 3 
4 0 4 
4 0 5 
4 1 0 
4 1 1 
4 1 2 
4 1 3 
4 1 4 
4 1 5 
4 2 0 
4 2 1 
4 2 2 
4 2 3 
4 2 4 
4 2 5 
4 3 0 
4 3 1 
4 3 2 
4 3 3 
4 3 4 
4 3 5 
4 4 0 
4 4 1 
4 4 2 
4 4 3 
4 4 4 
4 4 5 
4 5 0 
4 5 1 
4 5 2 
4 5 3 
4 5 4 
4 5 5 
5 0 0 
5 0 1 
5 0 2 
5 0 3 
5 0 4 
5 0 5 
5 1 0 
5 1 1 
5 1 2 
5 1 3 
5 1 4 
5 1 5 
5 2 0 
5 2 1 
5 2 2 
5 2 3 
5 2 4 
5 2 5 
5 3 0 
5 3 1 
5 3 2 
5 3 3 
5 3 4 
5 3 5 
5 4 0 
5 4 1 
5 4 2 
5 4 3 
5 4 4 
5 4 5 
5 5 0 
5 5 1 
5 5 2 
5 5 3 
5 5 4 
5 5 5 
CELLS 125 1125 
8 0 1 6 7 36 37 42 43 
8 1 2 7 8 37 38 43 44 
8 2 3 8 9 38 39 44 45 
8 3 4 9 10 39 40 45 46 
8 4 5 10 11 40 41 46 47 
8 6 7 12 13 42 43 48 49 
8 7 8 13 14 43 44 49 50 
8 8 9 14 15 44 45 50 51 
8 9 10 15 16 45 46 51 52 
8 10 11 16 17 46 47 52 53 
8 12 13 18 19 48 49 54 55 
8 13 14 19 20 49 50 55 56 
8 14 15 20 21 50 51 56 57 
8 15 16 21 22 51 52 57 58 
8 16 17 22 23 52 53 58 59 
8 18 19 24 25 54 55 60 61 
8 19 20 25 26 55 56 61 62 
8 20 21 26 27 56 57 62 63 
8 21 22 27 28 57 58 63 64 
8 22 23 28 29 58 59 64 65 
8 24 25 30 31 60 61 66 67 
8 25 26 31 32 61 62 67 68 
8 26 27 32 33 62 63 68 69 
8 27 28 33 34 63 64 69 70 
8 28 29 34 35 64 65 70 71 
8 36 37 42 43 72 73 78 79 
8 37 38 43 44 73 74 79 80 
8 38 39 44 45 74 75 80 81 
8 39 40 45 46 75 76 81 82 
8 40 41 46 47 76 77 82 83 
8 42 43 48 49 78 79 84 85 
8 43 44 49 50 79 80 85 86 
8 44 45 50 51 80 81 86 87 
8 45 46 51 52 81 82 87 88 
8 46 47 52 53 82 83 88 89 
8 48 49 54 55 84 85 90 91 
8 49 50 55 56 85 86 91 92 
8 50 51 56 57 86 87 92 93 
8 51 52 57 58 87 88 93 94 
8 52 53 58 59 88 89 94 95 
8 54 55 60 61 90 91 96 97 
8 55 56 61 62 91 92 97 98 
8 56 57 62 63 92 93 98 99 
8 57 58 63 64 93 94 99 100 
8 58 59 64 65 94 95 100 101 
8 60 61 66 67 96 97 102 103 
8 61 62 67 68 97 98 103 104 
8 62 63 68 69 98 99 104 105 
8 63 64 69 70 99 100 105 106 
8 64 65 70 71 100 101 106 107 
8 72 73 78 79 108 109 114 115 
8 73 74 79 80 109 110 115 116 
8 74 75 80 81 110 111 116 117 
8 75 76 81 82 111 112 117 118 
8 76 77 82 83 112 113 118 119 
8 78 79 84 85 114 115 120 121 
8 79 80 85 86 115 116 121 122 
8 80 81 86 87 116 117 122 123 
8 81 82 87 88 117 118 123 124 
8 82 83 88 89 118 119 124 125 
8 84 85 90 91 120 121 126 127 
8 85 86 91 92 121 122 127 128 
8 86 87 92 93 122 123 128 129 
8 87 88 93 94 123 124 129 130 
8 88 89 94 95 124 125 130 131 
8 90 91 96 97 126 127 132 133 
8 91 92 97 98 127 128 133 134 
8 92 93 98 99 128 129 134 135 
8 93 94 99 100 129 130 135 136 
8 94 95 100 101 130 131 136 137 
8 96 97 102 103 132 133 138 139 
8 97 98 103 104 133 134 139 140 
8 98 99 104 105 134 135 140 141 
8 99 100 105 106 135 136 141 142 
8 100 101 106 107 136 137 142 143 
8 108 109 114 115 144 145 150 151 
8 109 110 115 116 145 146 151 152 
8 110 111 116 117 146 147 152 153 
8 111 112 117 118 147 148 153 154 
8 112 113 118 119 148 149 154 155 
8 114 115 120 121 150 151 156 157 
8 115 116 121 122 151 152 157 158 
8 116 117 122 123 152 153 158 159 
8 117 118 123 124 153 154 159 160 
8 118 119 124 125 154 155 160 161 
8 120 121 126 127 156 157 162 163 
8 121 122 127 128 157 158 163 164 
8 122 123 128 129 158 159 164 165 
8 123 124 129 130 159 160 165 166 
8 124 125 130 131 160 161 166 167 
8 126 127 132 133 162 163 168 169 
8 127 128 133 134 163 164 169 170 
8 128 129 134 135 164 165 170 171 
8 129 130 135 136 165 166 171 172 
8 130 131 136 137 166 167 172 173 
8 132 133 138 139 168 169 174 175 
8 133 134 139 140 169 170 175 176 
8 134 135 140 141 170 171 176 177 
8 135 136 141 142 171 172 177 178 
8 136 137 142 143 172 173 178 179 
8 144 145 150 151 180 181 186 187 
8 145 146 151 152 181 182 187 188 
8 146 147 152 153 182 183 188 189 
8 147 148 153 154 183 184 189 190 
8 148 149 154 155 184 185 190 191 
8 150 151 156 157 186 187 192 193 
8 151 152 157 158 187 188 193 194 
8 152 153 158 159 188 189 194 195 
8 153 154 159 160 189 190 195 196 
8 154 155 160 161 190 191 196 197 
8 156 157 162 163 192 193 198 199 
8 157 158 163 164 193 194 199 200 
8 158 159 164 165 194 195 200 201 
8 159 160 165 166 195 196 201 202 
8 160 161 166 167 196 197 202 203 
8 162 163 168 169 198 199 204 205 
8 163 164 169 170 199 200 205 206 
8 164 165 170 171 200 201 206 207 
8 165 166 171 172 201 202 207 208 
8 166 167 172 173 202 203 208 209 
8 168 169 174 175 204 205 210 211 
8 169 170 175 176 205 206 211 212 
8 170 171 176 177 206 207 212 213 
8 171 172 177 178 207 208 213 214 
8 172 173 178 179 208 209 214 215 
CELL_TYPES 125 
12
12
12
12
12
12
12
12
12
12
12
12
12
12
12
12
12
12
12
12
12
12
12
12
12
12
12
12
12
12
12
12
12
12
12
12
12
12
12
12
12
12
12
12
12
12
12
12
12
12
12
12
12
12
12
12
12
12
12
12
12
12
12
12
12
12
12
12
12
12
12
12
12
12
12
12
12
12
12
12
12
12
12
12
12
12
12
12
12
12
12
12
12
12
12
12
12
12
12
12
12
12
12
12
12
12
12
12
12
12
12
12
12
12
12
12
12
12
12
12
12
12
12
12
12
CELL_DATA 125 
SCALARS material int
LOOKUP_TABLE default
1
1
1
1
1
1
1
1
1
1
1
1
1
1
1
1
1
1
1
1
1
1
1
1
1
1
1
1
1
1
1
1
1
1
1
1
1
1
1
1
1
1
1
1
1
1
1
1
1
1
1
1
1
1
1
1
1
1
1
1
1
1
1
1
1
1
1
1
1
1
1
1
1
1
1
1
1
1
1
1
1
1
1
1
1
1
1
1
1
1
1
1
1
1
1
1
1
1
1
1
1
1
1
1
1
1
1
1
1
1
1
1
1
1
1
1
1
1
1
1
1
1
1
1
1
